                         Program Version 4.2.1 -  RELEASE  -
|  1> ! B3LYP def2-SVP Opt Freq TightSCF
|  2>
|  3> * xyz 0 1
|  4> C    0.000000    0.000000    0.000000
|  5> H    0.629118    0.629118    0.629118
|  6> H   -0.629118   -0.629118    0.629118
|  7> H   -0.629118    0.629118   -0.629118
|  8> H    0.629118   -0.629118   -0.629118
|  9> *
| 10>
| 11>                          ****END OF INPUT****
 Total Charge           Charge          ....    0
 Multiplicity           Mult            ....    1
 Number of Electrons    NEL             ....   10
FINAL SINGLE POINT ENERGY       -40.451562371582
FINAL SINGLE POINT ENERGY       -40.451815099954
                    ***********************HURRAY********************

CARTESIAN COORDINATES (ANGSTROEM)
---------------------------------
  C      0.000000    0.000000   -0.000000
  H      0.634903    0.634903    0.634903
  H     -0.634903   -0.634903    0.634903
  H     -0.634903    0.634903   -0.634903
  H      0.634903   -0.634903   -0.634903

 Multiplicity           Mult            ....    1
 Number of Electrons    NEL             ....   10
 Basis Dimension        Dim             ....   34

ORBITAL ENERGIES
----------------

  NO   OCC          E(Eh)            E(eV)
   0   2.0000     -10.172510      -276.8081
   1   2.0000      -0.680308       -18.5121
   2   2.0000      -0.386830       -10.5262
   3   2.0000      -0.386830       -10.5262
   4   2.0000      -0.386830       -10.5262
   5   0.0000       0.073424         1.9980
   6   0.0000       0.145520         3.9598
   7   0.0000       0.145520         3.9598
   8   0.0000       0.145520         3.9598
   9   0.0000       0.420375        11.4390

MULLIKEN ATOMIC CHARGES
-----------------------
   0 C :   -0.109987
   1 H :    0.027497
   2 H :    0.027497
   3 H :    0.027497
   4 H :    0.027497
Sum of atomic charges:   -0.0000000

LOEWDIN ATOMIC CHARGES
----------------------
   0 C :   -0.107953
   1 H :    0.026988
   2 H :    0.026988
   3 H :    0.026988
   4 H :    0.026988

  Mayer bond orders larger than 0.100000
B(  0-C ,  1-H ) :   0.9988 B(  0-C ,  2-H ) :   0.9988 B(  0-C ,  3-H ) :   0.9988
B(  0-C ,  4-H ) :   0.9988

FINAL SINGLE POINT ENERGY       -40.451815117773

DIPOLE MOMENT
-------------
                                X             Y             Z
Electronic contribution:      0.00000       0.00000      -0.00000
Nuclear contribution   :     -0.00000      -0.00000       0.00000
                        -----------------------------------------
Total Dipole Moment    :      0.00000      -0.00000      -0.00000
                        -----------------------------------------
Magnitude (a.u.)       :      0.00000
Magnitude (Debye)      :      0.00000

VIBRATIONAL FREQUENCIES
-----------------------

Scaling factor for frequencies =  1.000000000  (already applied!)

   0:         0.00 cm**-1
   1:         0.00 cm**-1
   2:         0.00 cm**-1
   3:         0.00 cm**-1
   4:         0.00 cm**-1
   5:         0.00 cm**-1
   6:      1312.94 cm**-1
   7:      1312.94 cm**-1
   8:      1312.94 cm**-1
   9:      1529.97 cm**-1
  10:      1529.97 cm**-1
  11:      3019.02 cm**-1
  12:      3151.97 cm**-1
  13:      3151.97 cm**-1
  14:      3151.97 cm**-1

IR SPECTRUM
-----------

 Mode    freq (cm**-1)   T**2         TX         TY         TZ
-------------------------------------------------------------------
   6:      1312.94   13.171250  ( -2.245551  -0.257776   2.839419)
   7:      1312.94   13.171250  (  0.418915  -3.604961   0.004023)
   8:      1312.94   13.171251  ( -2.820153  -0.330239  -2.260295)
   9:      1529.97    0.000000  (  0.000000  -0.000000   0.000000)
  10:      1529.97    0.000000  ( -0.000000   0.000000   0.000000)
  11:      3019.02    0.000000  (  0.000000   0.000000  -0.000000)
  12:      3151.97   17.696893  ( -1.728174  -2.418320   2.976917)
  13:      3151.97   17.696893  (  3.431884  -2.432861   0.015942)
  14:      3151.97   17.696893  ( -1.712449  -2.435120  -2.972306)

--------------------------
THERMOCHEMISTRY AT 298.15K
--------------------------

Temperature         ... 298.15 K
Pressure            ... 1.00 atm
Total Mass          ... 16.04 AMU

Throughout the following assumptions are being made:
  (1) The electronic state is orbitally nondegenerate
  (2) There are no thermally accessible electronically excited states
  (3) Hindered rotations indicated by low frequency modes are not
      treated as such but are treated as vibrations and this may
      cause some error
  (4) All equations used are the standard statistical mechanics
      equations for an ideal gas
  (5) All vibrations are strictly harmonic

freq.    1312.94  E(vib)   ...       0.01
freq.    1312.94  E(vib)   ...       0.01
freq.    1312.94  E(vib)   ...       0.01
freq.    1529.97  E(vib)   ...       0.00
freq.    1529.97  E(vib)   ...       0.00
freq.    3019.02  E(vib)   ...       0.00
freq.    3151.97  E(vib)   ...       0.00
freq.    3151.97  E(vib)   ...       0.00
freq.    3151.97  E(vib)   ...       0.00

------------
INNER ENERGY
------------

The inner energy is: U= E(el) + E(ZPE) + E(vib) + E(rot) + E(trans)
    E(el)   - is the total energy from the electronic structure calculation
              = E(kin-el) + E(nuc-el) + E(el-el) + E(nuc-nuc)
    E(ZPE)  - the the zero temperature vibrational energy from the frequency calculation
    E(vib)  - the the finite temperature correction to E(ZPE) due to population
              of excited vibrational states
    E(rot)  - is the rotational thermal energy
    E(trans)- is the translational thermal energy

Summary of contributions to the inner energy U:
Electronic energy                ...    -40.45181512 Eh
Zero point energy                ...      0.04436437 Eh      27.84 kcal/mol
Thermal vibrational correction   ...      0.00004055 Eh       0.03 kcal/mol
Thermal rotational correction    ...      0.00141627 Eh       0.89 kcal/mol
Thermal translational correction ...      0.00141627 Eh       0.89 kcal/mol
-----------------------------------------------------------------------
Total thermal energy                    -40.40457766 Eh

Summary of corrections to the electronic energy:
(perhaps to be used in another calculation)
Total thermal correction                  0.00287309 Eh       1.80 kcal/mol
Non-thermal (ZPE) correction              0.04436437 Eh      27.84 kcal/mol
-----------------------------------------------------------------------
Total correction                          0.04723746 Eh      29.64 kcal/mol

--------
ENTHALPY
--------

The enthalpy is H = U + kB*T
                kB is Boltzmann's constant
Total free energy                 ...    -40.40457766 Eh
Thermal Enthalpy correction       ...      0.00094421 Eh       0.59 kcal/mol
-----------------------------------------------------------------------
Total Enthalpy                    ...    -40.40363345 Eh

Note: Rotational entropy computed according to Herzberg
Infrared and Raman Spectra, Chapter V,1, Van Nostrand Reinhold, 1945
Point Group:  Td, Symmetry Number:  12
Rotational constants in cm-1:     5.185992     5.185992     5.185992

Vibrational entropy computed according to the QRRHO of S. Grimme
Chem.Eur.J. 2012 18 9955

-------
ENTROPY
-------

The entropy contributions are T*S = T*(S(el)+S(vib)+S(rot)+S(trans))
     S(el)   - electronic entropy
     S(vib)  - vibrational entropy
     S(rot)  - rotational entropy
     S(trans)- translational entropy
The entropies will be listed as mutliplied by the temperature to get
units of energy

Electronic entropy                ...      0.00000000 Eh      0.00 kcal/mol
Vibrational entropy               ...      0.00004676 Eh      0.03 kcal/mol
Rotational entropy                ...      0.00483348 Eh      3.03 kcal/mol
Translational entropy             ...      0.01627961 Eh     10.22 kcal/mol
-----------------------------------------------------------------------
Final entropy term                ...      0.02115985 Eh     13.28 kcal/mol

In case the symmetry of your molecule has not been determined correctly
or in case you have a reason to use a different symmetry number we print
out the resulting rotational entropy values for sn=1,12 :
 --------------------------------------------------------
|  sn= 1 | S(rot)=       0.00717968 Eh      4.51 kcal/mol|
|  sn= 2 | S(rot)=       0.00652523 Eh      4.09 kcal/mol|
|  sn= 3 | S(rot)=       0.00614239 Eh      3.85 kcal/mol|
|  sn= 4 | S(rot)=       0.00587077 Eh      3.68 kcal/mol|
|  sn= 5 | S(rot)=       0.00566008 Eh      3.55 kcal/mol|
|  sn= 6 | S(rot)=       0.00548794 Eh      3.44 kcal/mol|
|  sn= 7 | S(rot)=       0.00534239 Eh      3.35 kcal/mol|
|  sn= 8 | S(rot)=       0.00521631 Eh      3.27 kcal/mol|
|  sn= 9 | S(rot)=       0.00510510 Eh      3.20 kcal/mol|
|  sn=10 | S(rot)=       0.00500563 Eh      3.14 kcal/mol|
|  sn=11 | S(rot)=       0.00491564 Eh      3.08 kcal/mol|
|  sn=12 | S(rot)=       0.00483348 Eh      3.03 kcal/mol|
 --------------------------------------------------------

-------------------
GIBBS FREE ENERGY
-------------------

The Gibbs free energy is G = H - T*S

Total enthalpy                    ...    -40.40363345 Eh
Total entropy correction          ...     -0.02115985 Eh    -13.28 kcal/mol
-----------------------------------------------------------------------
Final Gibbs free energy         ...    -40.42479330 Eh

For completeness - the Gibbs free energy minus the electronic energy
G-E(el)                           ...      0.02702182 Eh     16.96 kcal/mol

                             ****ORCA TERMINATED NORMALLY****
TOTAL RUN TIME: 0 days 0 hours 0 minutes 38 seconds 825 msec
