                         Program Version 6.1.0-f.0  -   RELEASE   -
|  1> ! B3LYP def2-SVP Opt Freq TightSCF
|  2>
|  3> * xyz 0 1
|  4> C    0.000000    0.000000    0.000000
|  5> H    0.629118    0.629118    0.629118
|  6> H   -0.629118   -0.629118    0.629118
|  7> H   -0.629118    0.629118   -0.629118
|  8> H    0.629118   -0.629118   -0.629118
|  9> *
| 10>
| 11>                          ****END OF INPUT****
 Total Charge           Charge          ....    0
 Multiplicity           Mult            ....    1
 Number of Electrons    NEL             ....   10
FINAL SINGLE POINT ENERGY       -40.451683572707
FINAL SINGLE POINT ENERGY       -40.451935747887
                    ***********************HURRAY********************

CARTESIAN COORDINATES (ANGSTROEM)
---------------------------------
  C      0.000000    0.000000   -0.000000
  H      0.634909    0.634909    0.634909
  H     -0.634909   -0.634909    0.634909
  H     -0.634909    0.634909   -0.634909
  H      0.634909   -0.634909   -0.634909

 Multiplicity           Mult            ....    1
 Number of Electrons    NEL             ....   10
 Basis Dimension        Dim             ....   34

ORBITAL ENERGIES
----------------

  NO   OCC          E(Eh)            E(eV)
   0   2.0000     -10.172741      -276.8144
   1   2.0000      -0.680165       -18.5082
   2   2.0000      -0.386695       -10.5225
   3   2.0000      -0.386695       -10.5225
   4   2.0000      -0.386695       -10.5225
   5   0.0000       0.073780         2.0077
   6   0.0000       0.145192         3.9509
   7   0.0000       0.145192         3.9509
   8   0.0000       0.145192         3.9509
   9   0.0000       0.420566        11.4442

MULLIKEN ATOMIC CHARGES
-----------------------
   0 C :   -0.116705
   1 H :    0.029176
   2 H :    0.029176
   3 H :    0.029176
   4 H :    0.029176
Sum of atomic charges:    0.0000000

LOEWDIN ATOMIC CHARGES
----------------------
   0 C :   -0.109015
   1 H :    0.027254
   2 H :    0.027254
   3 H :    0.027254
   4 H :    0.027254

  Mayer bond orders larger than 0.100000
B(  0-C ,  1-H ) :   0.9987 B(  0-C ,  2-H ) :   0.9987 B(  0-C ,  3-H ) :   0.9987
B(  0-C ,  4-H ) :   0.9987

FINAL SINGLE POINT ENERGY       -40.451937109253

DIPOLE MOMENT
-------------

Method             : SCF
Type of density    : Electron Density
Multiplicity       :   1
Irrep              :   0
Energy             :   -40.4519371092530804 Eh
Basis              : AO
                                X                 Y                 Z
Electronic contribution:     -0.000000002       0.000000036      -0.000000125
Nuclear contribution   :     -0.000000024      -0.000000071       0.000000073
                        -----------------------------------------
Total Dipole Moment    :     -0.000000026      -0.000000036      -0.000000052
                        -----------------------------------------
Magnitude (a.u.)       :      0.000000068
Magnitude (Debye)      :      0.000000173

VIBRATIONAL FREQUENCIES
-----------------------

Scaling factor for frequencies =  1.000000000  (already applied!)

     0:       0.00 cm**-1
     1:       0.00 cm**-1
     2:       0.00 cm**-1
     3:       0.00 cm**-1
     4:       0.00 cm**-1
     5:       0.00 cm**-1
     6:    1313.76 cm**-1
     7:    1313.77 cm**-1
     8:    1313.77 cm**-1
     9:    1530.74 cm**-1
    10:    1530.74 cm**-1
    11:    3018.26 cm**-1
    12:    3151.57 cm**-1
    13:    3151.57 cm**-1
    14:    3151.57 cm**-1

IR SPECTRUM
-----------

 Mode   freq       eps      Int      T**2         TX        TY        TZ
       cm**-1   L/(mol*cm) km/mol    a.u.
----------------------------------------------------------------------------
  6:   1313.76   0.002649   13.39  0.000629  (-0.012864  0.015943  0.014476)
  7:   1313.77   0.002649   13.39  0.000629  ( 0.020904  0.013294  0.003935)
  8:   1313.77   0.002649   13.39  0.000629  ( 0.005171 -0.014082  0.020104)
  9:   1530.74   0.000000    0.00  0.000000  ( 0.000000  0.000000 -0.000000)
 10:   1530.74   0.000000    0.00  0.000000  ( 0.000000  0.000000 -0.000000)
 11:   3018.26   0.000000    0.00  0.000000  ( 0.000000 -0.000000  0.000000)
 12:   3151.57   0.003491   17.64  0.000346  ( 0.011523 -0.002247 -0.014415)
 13:   3151.57   0.003491   17.64  0.000346  (-0.009382 -0.015209 -0.005129)
 14:   3151.57   0.003491   17.64  0.000346  ( 0.011173 -0.010454  0.010560)

--------------------------
THERMOCHEMISTRY AT 298.15K
--------------------------

Temperature         ...   298.15 K
Pressure            ...     1.00 atm
Total Mass          ...    16.04 AMU
Quasi RRHO          ...     True
Cut-Off Frequency   ...     1.00 cm^-1

Throughout the following assumptions are being made:
  (1) The electronic state is orbitally nondegenerate
  (2) There are no thermally accessible electronically excited states
  (3) Hindered rotations indicated by low frequency modes are not
      treated as such but are treated as vibrations and this may
      cause some error
  (4) All equations used are the standard statistical mechanics
      equations for an ideal gas
  (5) All vibrations are strictly harmonic

freq.    1313.76  E(vib)   ...       0.01
freq.    1313.77  E(vib)   ...       0.01
freq.    1313.77  E(vib)   ...       0.01
freq.    1530.74  E(vib)   ...       0.00
freq.    1530.74  E(vib)   ...       0.00
freq.    3018.26  E(vib)   ...       0.00
freq.    3151.57  E(vib)   ...       0.00
freq.    3151.57  E(vib)   ...       0.00
freq.    3151.57  E(vib)   ...       0.00

------------
INNER ENERGY
------------

The inner energy is: U= E(el) + E(ZPE) + E(vib) + E(rot) + E(trans)
    E(el)   - is the total energy from the electronic structure calculation
              = E(kin-el) + E(nuc-el) + E(el-el) + E(nuc-nuc)
    E(ZPE)  - the the zero temperature vibrational energy from the frequency calculation
    E(vib)  - the the finite temperature correction to E(ZPE) due to population
              of excited vibrational states
    E(rot)  - is the rotational thermal energy
    E(trans)- is the translational thermal energy

Summary of contributions to the inner energy U:
Electronic energy                ...    -40.45193711 Eh
Zero point energy                ...      0.04436898 Eh      27.84 kcal/mol
Thermal vibrational correction   ...      0.00004041 Eh       0.03 kcal/mol
Thermal rotational correction    ...      0.00141627 Eh       0.89 kcal/mol
Thermal translational correction ...      0.00141627 Eh       0.89 kcal/mol
-----------------------------------------------------------------------
Total thermal energy                    -40.40469518 Eh

Summary of corrections to the electronic energy:
(perhaps to be used in another calculation)
Total thermal correction                  0.00287296 Eh       1.80 kcal/mol
Non-thermal (ZPE) correction              0.04436898 Eh      27.84 kcal/mol
-----------------------------------------------------------------------
Total correction                          0.04724193 Eh      29.64 kcal/mol

--------
ENTHALPY
--------

The enthalpy is H = U + kB*T
                kB is Boltzmann's constant
Total thermal energy              ...    -40.40469518 Eh
Thermal Enthalpy correction       ...      0.00094421 Eh       0.59 kcal/mol
-----------------------------------------------------------------------
Total Enthalpy                    ...    -40.40375097 Eh

Note: Rotational entropy computed according to Herzberg
Infrared and Raman Spectra, Chapter V,1, Van Nostrand Reinhold, 1945
Point Group:  Td, Symmetry Number:  12
Rotational constants in cm-1:     5.185893     5.185893     5.185892

Vibrational entropy computed according to the QRRHO of S. Grimme
Chem.Eur.J. 2012 18 9955 using a reference frequency of 100.0 cm-1

-------
ENTROPY
-------

The entropy contributions are T*S = T*(S(el)+S(vib)+S(rot)+S(trans))
     S(el)   - electronic entropy
     S(vib)  - vibrational entropy
     S(rot)  - rotational entropy
     S(trans)- translational entropy
The entropies will be listed as multiplied by the temperature to get
units of energy

Electronic entropy                ...      0.00000000 Eh      0.00 kcal/mol
Vibrational entropy               ...      0.00004660 Eh      0.03 kcal/mol
Rotational entropy                ...      0.00483351 Eh      3.03 kcal/mol
Translational entropy             ...      0.01627961 Eh     10.22 kcal/mol
-----------------------------------------------------------------------
Final entropy term                ...      0.02115972 Eh     13.28 kcal/mol

In case the symmetry of your molecule has not been determined correctly
or in case you have a reason to use a different symmetry number we print
out the resulting rotational entropy values for sn=1,12:

 non-linear molecules -----------------------------------
|  sn= 1 | S(rot)=       0.00717971 Eh      4.51 kcal/mol|
|  sn= 2 | S(rot)=       0.00652525 Eh      4.09 kcal/mol|
|  sn= 3 | S(rot)=       0.00614242 Eh      3.85 kcal/mol|
|  sn= 4 | S(rot)=       0.00587080 Eh      3.68 kcal/mol|
|  sn= 5 | S(rot)=       0.00566011 Eh      3.55 kcal/mol|
|  sn= 6 | S(rot)=       0.00548796 Eh      3.44 kcal/mol|
|  sn= 7 | S(rot)=       0.00534242 Eh      3.35 kcal/mol|
|  sn= 8 | S(rot)=       0.00521634 Eh      3.27 kcal/mol|
|  sn= 9 | S(rot)=       0.00510513 Eh      3.20 kcal/mol|
|  sn=10 | S(rot)=       0.00500565 Eh      3.14 kcal/mol|
|  sn=11 | S(rot)=       0.00491566 Eh      3.08 kcal/mol|
|  sn=12 | S(rot)=       0.00483351 Eh      3.03 kcal/mol|
 linear molecules ---------------------------------------
|  Dinfh | S(rot)=       0.00377174 Eh      2.37 kcal/mol|
|  Cinfv | S(rot)=       0.00442620 Eh      2.78 kcal/mol|
 --------------------------------------------------------

-------------------
GIBBS FREE ENERGY
-------------------

The Gibbs free energy is G = H - T*S

Total enthalpy                    ...    -40.40375097 Eh
Total entropy correction          ...     -0.02115972 Eh    -13.28 kcal/mol
-----------------------------------------------------------------------
Final Gibbs free energy         ...    -40.42491069 Eh

For completeness - the Gibbs free energy minus the electronic energy
G-E(el)                           ...      0.02702642 Eh     16.96 kcal/mol

                             ****ORCA TERMINATED NORMALLY****
TOTAL RUN TIME: 0 days 0 hours 0 minutes 7 seconds 566 msec
