                         Program Version 4.2.1 -  RELEASE  -
|  1> ! B3LYP def2-SVP Opt Freq TightSCF
|  2>
|  3> * xyz 0 1
|  4> O    0.000000    0.000000    0.000000
|  5> H    0.757000    0.586000    0.000000
|  6> H   -0.757000    0.586000    0.000000
|  7> *
|  8>
|  9>                          ****END OF INPUT****
 Total Charge           Charge          ....    0
 Multiplicity           Mult            ....    1
 Number of Electrons    NEL             ....   10
FINAL SINGLE POINT ENERGY       -76.320956869719
FINAL SINGLE POINT ENERGY       -76.321133778205
FINAL SINGLE POINT ENERGY       -76.321150289569
FINAL SINGLE POINT ENERGY       -76.321155484654
                    ***********************HURRAY********************

CARTESIAN COORDINATES (ANGSTROEM)
---------------------------------
  O     -0.000000   -0.010014    0.000000
  H      0.757393    0.591007    0.000000
  H     -0.757393    0.591007    0.000000

 Multiplicity           Mult            ....    1
 Number of Electrons    NEL             ....   10
 Basis Dimension        Dim             ....   24

ORBITAL ENERGIES
----------------

  NO   OCC          E(Eh)            E(eV)
   0   2.0000     -19.115931      -520.1709
   1   2.0000      -0.976150       -26.5624
   2   2.0000      -0.507959       -13.8223
   3   2.0000      -0.364493        -9.9184
   4   2.0000      -0.287768        -7.8306
   5   0.0000       0.048138         1.3099
   6   0.0000       0.126026         3.4293
   7   0.0000       0.558457        15.1964
   8   0.0000       0.624165        16.9844
   9   0.0000       0.920694        25.0533

MULLIKEN ATOMIC CHARGES
-----------------------
   0 O :   -0.292339
   1 H :    0.146170
   2 H :    0.146170
Sum of atomic charges:   -0.0000000

LOEWDIN ATOMIC CHARGES
----------------------
   0 O :   -0.149452
   1 H :    0.074726
   2 H :    0.074726

  Mayer bond orders larger than 0.100000
B(  0-O ,  1-H ) :   1.0085 B(  0-O ,  2-H ) :   1.0085

FINAL SINGLE POINT ENERGY       -76.321155480372

DIPOLE MOMENT
-------------
                                X             Y             Z
Electronic contribution:     -0.00000      -0.21396       0.00000
Nuclear contribution   :      0.00000       1.00053       0.00000
                        -----------------------------------------
Total Dipole Moment    :      0.00000       0.78657       0.00000
                        -----------------------------------------
Magnitude (a.u.)       :      0.78657
Magnitude (Debye)      :      1.99931

VIBRATIONAL FREQUENCIES
-----------------------

Scaling factor for frequencies =  1.000000000  (already applied!)

   0:         0.00 cm**-1
   1:         0.00 cm**-1
   2:         0.00 cm**-1
   3:         0.00 cm**-1
   4:         0.00 cm**-1
   5:         0.00 cm**-1
   6:      1638.24 cm**-1
   7:      3789.35 cm**-1
   8:      3884.72 cm**-1

IR SPECTRUM
-----------

 Mode    freq (cm**-1)   T**2         TX         TY         TZ
-------------------------------------------------------------------
   6:      1638.24   55.316390  ( -0.000000  -7.437499  -0.000000)
   7:      3789.35    4.754805  (  0.000000   2.180552  -0.000000)
   8:      3884.72   26.503201  (  5.148126  -0.000000   0.000000)

--------------------------
THERMOCHEMISTRY AT 298.15K
--------------------------

Temperature         ... 298.15 K
Pressure            ... 1.00 atm
Total Mass          ... 18.02 AMU

Throughout the following assumptions are being made:
  (1) The electronic state is orbitally nondegenerate
  (2) There are no thermally accessible electronically excited states
  (3) Hindered rotations indicated by low frequency modes are not
      treated as such but are treated as vibrations and this may
      cause some error
  (4) All equations used are the standard statistical mechanics
      equations for an ideal gas
  (5) All vibrations are strictly harmonic

freq.    1638.24  E(vib)   ...       0.00
freq.    3789.35  E(vib)   ...       0.00
freq.    3884.72  E(vib)   ...       0.00

------------
INNER ENERGY
------------

The inner energy is: U= E(el) + E(ZPE) + E(vib) + E(rot) + E(trans)
    E(el)   - is the total energy from the electronic structure calculation
              = E(kin-el) + E(nuc-el) + E(el-el) + E(nuc-nuc)
    E(ZPE)  - the the zero temperature vibrational energy from the frequency calculation
    E(vib)  - the the finite temperature correction to E(ZPE) due to population
              of excited vibrational states
    E(rot)  - is the rotational thermal energy
    E(trans)- is the translational thermal energy

Summary of contributions to the inner energy U:
Electronic energy                ...    -76.32115548 Eh
Zero point energy                ...      0.02121499 Eh      13.31 kcal/mol
Thermal vibrational correction   ...      0.00000275 Eh       0.00 kcal/mol
Thermal rotational correction    ...      0.00141627 Eh       0.89 kcal/mol
Thermal translational correction ...      0.00141627 Eh       0.89 kcal/mol
-----------------------------------------------------------------------
Total thermal energy                    -76.29710520 Eh

Summary of corrections to the electronic energy:
(perhaps to be used in another calculation)
Total thermal correction                  0.00283530 Eh       1.78 kcal/mol
Non-thermal (ZPE) correction              0.02121499 Eh      13.31 kcal/mol
-----------------------------------------------------------------------
Total correction                          0.02405028 Eh      15.09 kcal/mol

--------
ENTHALPY
--------

The enthalpy is H = U + kB*T
                kB is Boltzmann's constant
Total free energy                 ...    -76.29710520 Eh
Thermal Enthalpy correction       ...      0.00094421 Eh       0.59 kcal/mol
-----------------------------------------------------------------------
Total Enthalpy                    ...    -76.29616099 Eh

Note: Rotational entropy computed according to Herzberg
Infrared and Raman Spectra, Chapter V,1, Van Nostrand Reinhold, 1945
Point Group:  C2v, Symmetry Number:   2
Rotational constants in cm-1:    26.065645    14.576856     9.348715

Vibrational entropy computed according to the QRRHO of S. Grimme
Chem.Eur.J. 2012 18 9955

-------
ENTROPY
-------

The entropy contributions are T*S = T*(S(el)+S(vib)+S(rot)+S(trans))
     S(el)   - electronic entropy
     S(vib)  - vibrational entropy
     S(rot)  - rotational entropy
     S(trans)- translational entropy
The entropies will be listed as mutliplied by the temperature to get
units of energy

Electronic entropy                ...      0.00000000 Eh      0.00 kcal/mol
Vibrational entropy               ...      0.00000310 Eh      0.00 kcal/mol
Rotational entropy                ...      0.00499688 Eh      3.14 kcal/mol
Translational entropy             ...      0.01644380 Eh     10.32 kcal/mol
-----------------------------------------------------------------------
Final entropy term                ...      0.02144378 Eh     13.46 kcal/mol

In case the symmetry of your molecule has not been determined correctly
or in case you have a reason to use a different symmetry number we print
out the resulting rotational entropy values for sn=1,12 :
 --------------------------------------------------------
|  sn= 1 | S(rot)=       0.00565133 Eh      3.55 kcal/mol|
|  sn= 2 | S(rot)=       0.00499688 Eh      3.14 kcal/mol|
|  sn= 3 | S(rot)=       0.00461404 Eh      2.90 kcal/mol|
|  sn= 4 | S(rot)=       0.00434242 Eh      2.72 kcal/mol|
|  sn= 5 | S(rot)=       0.00413173 Eh      2.59 kcal/mol|
|  sn= 6 | S(rot)=       0.00395959 Eh      2.48 kcal/mol|
|  sn= 7 | S(rot)=       0.00381404 Eh      2.39 kcal/mol|
|  sn= 8 | S(rot)=       0.00368796 Eh      2.31 kcal/mol|
|  sn= 9 | S(rot)=       0.00357676 Eh      2.24 kcal/mol|
|  sn=10 | S(rot)=       0.00347728 Eh      2.18 kcal/mol|
|  sn=11 | S(rot)=       0.00338729 Eh      2.13 kcal/mol|
|  sn=12 | S(rot)=       0.00330513 Eh      2.07 kcal/mol|
 --------------------------------------------------------

-------------------
GIBBS FREE ENERGY
-------------------

The Gibbs free energy is G = H - T*S

Total enthalpy                    ...    -76.29616099 Eh
Total entropy correction          ...     -0.02144378 Eh    -13.46 kcal/mol
-----------------------------------------------------------------------
Final Gibbs free energy         ...    -76.31760477 Eh

For completeness - the Gibbs free energy minus the electronic energy
G-E(el)                           ...      0.00355071 Eh      2.23 kcal/mol

                             ****ORCA TERMINATED NORMALLY****
TOTAL RUN TIME: 0 days 0 hours 0 minutes 33 seconds 691 msec
