                         Program Version 4.2.1 -  RELEASE  -
|  1> ! B3LYP def2-SVP Opt Freq TightSCF
|  2>
|  3> * xyz 0 1
|  4> O   -1.160000   0.000000   0.000000
|  5> C    0.000000   0.000000   0.000000
|  6> O    1.160000   0.000000   0.000000
|  7> *
|  8>
|  9>                          ****END OF INPUT****
 Total Charge           Charge          ....    0
 Multiplicity           Mult            ....    1
 Number of Electrons    NEL             ....   22
FINAL SINGLE POINT ENERGY      -188.360313796883
FINAL SINGLE POINT ENERGY      -188.360359944567
FINAL SINGLE POINT ENERGY      -188.360360387785
                    ***********************HURRAY********************

CARTESIAN COORDINATES (ANGSTROEM)
---------------------------------
  O     -1.163329    0.000000    0.000000
  C      0.000000   -0.000000   -0.000000
  O      1.163329    0.000000    0.000000

 Multiplicity           Mult            ....    1
 Number of Electrons    NEL             ....   22
 Basis Dimension        Dim             ....   42

ORBITAL ENERGIES
----------------

  NO   OCC          E(Eh)            E(eV)
   0   2.0000     -19.214634      -522.8568
   1   2.0000     -19.214566      -522.8549
   2   2.0000     -10.376325      -282.3542
   3   2.0000      -1.147187       -31.2165
   4   2.0000      -1.108355       -30.1599
   5   2.0000      -0.550955       -14.9923
   6   2.0000      -0.516118       -14.0443
   7   2.0000      -0.516118       -14.0443
   8   2.0000      -0.514079       -13.9888
   9   2.0000      -0.370130       -10.0718
  10   2.0000      -0.370130       -10.0718
  11   0.0000       0.033521         0.9121
  12   0.0000       0.033521         0.9121
  13   0.0000       0.061461         1.6724
  14   0.0000       0.342239         9.3128
  15   0.0000       0.417350        11.3567

MULLIKEN ATOMIC CHARGES
-----------------------
   0 O :   -0.132256
   1 C :    0.264513
   2 O :   -0.132256
Sum of atomic charges:   -0.0000000

LOEWDIN ATOMIC CHARGES
----------------------
   0 O :   -0.066869
   1 C :    0.133737
   2 O :   -0.066869

  Mayer bond orders larger than 0.100000
B(  0-O ,  1-C ) :   2.1723 B(  0-O ,  2-O ) :   0.2704 B(  1-C ,  2-O ) :   2.1723

FINAL SINGLE POINT ENERGY      -188.360360388041

DIPOLE MOMENT
-------------
                                X             Y             Z
Electronic contribution:     -0.00000      -0.00000      -0.00000
Nuclear contribution   :     -0.00000       0.00000       0.00000
                        -----------------------------------------
Total Dipole Moment    :     -0.00000      -0.00000      -0.00000
                        -----------------------------------------
Magnitude (a.u.)       :      0.00000
Magnitude (Debye)      :      0.00000

VIBRATIONAL FREQUENCIES
-----------------------

Scaling factor for frequencies =  1.000000000  (already applied!)

   0:         0.00 cm**-1
   1:         0.00 cm**-1
   2:         0.00 cm**-1
   3:         0.00 cm**-1
   4:         0.00 cm**-1
   5:       652.99 cm**-1
   6:       652.99 cm**-1
   7:      1388.26 cm**-1
   8:      2470.07 cm**-1

IR SPECTRUM
-----------

 Mode    freq (cm**-1)   T**2         TX         TY         TZ
-------------------------------------------------------------------
   5:       652.99   32.736789  (  0.000000  -5.165264   2.461064)
   6:       652.99   32.736789  ( -0.000000   2.461064   5.165264)
   7:      1388.26    0.000000  (  0.000000  -0.000000  -0.000000)
   8:      2470.07  612.036449  ( 24.739370   0.000000   0.000000)

--------------------------
THERMOCHEMISTRY AT 298.15K
--------------------------

Temperature         ... 298.15 K
Pressure            ... 1.00 atm
Total Mass          ... 44.01 AMU
The molecule is recognized as being linear

Throughout the following assumptions are being made:
  (1) The electronic state is orbitally nondegenerate
  (2) There are no thermally accessible electronically excited states
  (3) Hindered rotations indicated by low frequency modes are not
      treated as such but are treated as vibrations and this may
      cause some error
  (4) All equations used are the standard statistical mechanics
      equations for an ideal gas
  (5) All vibrations are strictly harmonic

freq.     652.99  E(vib)   ...       0.08
freq.     652.99  E(vib)   ...       0.08
freq.    1388.26  E(vib)   ...       0.00
freq.    2470.07  E(vib)   ...       0.00

------------
INNER ENERGY
------------

The inner energy is: U= E(el) + E(ZPE) + E(vib) + E(rot) + E(trans)
    E(el)   - is the total energy from the electronic structure calculation
              = E(kin-el) + E(nuc-el) + E(el-el) + E(nuc-nuc)
    E(ZPE)  - the the zero temperature vibrational energy from the frequency calculation
    E(vib)  - the the finite temperature correction to E(ZPE) due to population
              of excited vibrational states
    E(rot)  - is the rotational thermal energy
    E(trans)- is the translational thermal energy

Summary of contributions to the inner energy U:
Electronic energy                ...   -188.36036039 Eh
Zero point energy                ...      0.01176517 Eh       7.38 kcal/mol
Thermal vibrational correction   ...      0.00027399 Eh       0.17 kcal/mol
Thermal rotational correction    ...      0.00094418 Eh       0.59 kcal/mol
Thermal translational correction ...      0.00141627 Eh       0.89 kcal/mol
-----------------------------------------------------------------------
Total thermal energy                   -188.34596078 Eh

Summary of corrections to the electronic energy:
(perhaps to be used in another calculation)
Total thermal correction                  0.00263444 Eh       1.65 kcal/mol
Non-thermal (ZPE) correction              0.01176517 Eh       7.38 kcal/mol
-----------------------------------------------------------------------
Total correction                          0.01439961 Eh       9.04 kcal/mol

--------
ENTHALPY
--------

The enthalpy is H = U + kB*T
                kB is Boltzmann's constant
Total free energy                 ...   -188.34596078 Eh
Thermal Enthalpy correction       ...      0.00094421 Eh       0.59 kcal/mol
-----------------------------------------------------------------------
Total Enthalpy                    ...   -188.34501657 Eh

Note: Rotational entropy computed according to Herzberg
Infrared and Raman Spectra, Chapter V,1, Van Nostrand Reinhold, 1945
Point Group:  Dinfh, Symmetry Number:   2
Rotational constants in cm-1:     0.000000     0.389286     0.389286

Vibrational entropy computed according to the QRRHO of S. Grimme
Chem.Eur.J. 2012 18 9955

-------
ENTROPY
-------

The entropy contributions are T*S = T*(S(el)+S(vib)+S(rot)+S(trans))
     S(el)   - electronic entropy
     S(vib)  - vibrational entropy
     S(rot)  - rotational entropy
     S(trans)- translational entropy
The entropies will be listed as mutliplied by the temperature to get
units of energy

Electronic entropy                ...      0.00000000 Eh      0.00 kcal/mol
Vibrational entropy               ...      0.00035810 Eh      0.22 kcal/mol
Rotational entropy                ...      0.00621658 Eh      3.90 kcal/mol
Translational entropy             ...      0.01770880 Eh     11.11 kcal/mol
-----------------------------------------------------------------------
Final entropy term                ...      0.02428348 Eh     15.24 kcal/mol

In case the symmetry of your molecule has not been determined correctly
or in case you have a reason to use a different symmetry number we print
out the resulting rotational entropy values for sn=1,12 :
 --------------------------------------------------------
|  sn= 1 | S(rot)=      -0.00720400 Eh     -4.52 kcal/mol|
|  sn= 2 | S(rot)=      -0.00785846 Eh     -4.93 kcal/mol|
|  sn= 3 | S(rot)=      -0.00824129 Eh     -5.17 kcal/mol|
|  sn= 4 | S(rot)=      -0.00851291 Eh     -5.34 kcal/mol|
|  sn= 5 | S(rot)=      -0.00872360 Eh     -5.47 kcal/mol|
|  sn= 6 | S(rot)=      -0.00889575 Eh     -5.58 kcal/mol|
|  sn= 7 | S(rot)=      -0.00904129 Eh     -5.67 kcal/mol|
|  sn= 8 | S(rot)=      -0.00916737 Eh     -5.75 kcal/mol|
|  sn= 9 | S(rot)=      -0.00927858 Eh     -5.82 kcal/mol|
|  sn=10 | S(rot)=      -0.00937806 Eh     -5.88 kcal/mol|
|  sn=11 | S(rot)=      -0.00946805 Eh     -5.94 kcal/mol|
|  sn=12 | S(rot)=      -0.00955020 Eh     -5.99 kcal/mol|
 --------------------------------------------------------

-------------------
GIBBS FREE ENERGY
-------------------

The Gibbs free energy is G = H - T*S

Total enthalpy                    ...   -188.34501657 Eh
Total entropy correction          ...     -0.02428348 Eh    -15.24 kcal/mol
-----------------------------------------------------------------------
Final Gibbs free energy         ...   -188.36930005 Eh

For completeness - the Gibbs free energy minus the electronic energy
G-E(el)                           ...     -0.00893966 Eh     -5.61 kcal/mol

                             ****ORCA TERMINATED NORMALLY****
TOTAL RUN TIME: 0 days 0 hours 0 minutes 53 seconds 888 msec
